HETATM    1  C1  UNL     1       0.000   0.000   0.000  1.00  0.00           C  
HETATM    2  C2  UNL     1       0.000   0.000   0.000  1.00  0.00           C  
HETATM    3  O1  UNL     1       0.000   0.000   0.000  1.00  0.00           O  
HETATM    4  N1  UNL     1       0.000   0.000   0.000  1.00  0.00           N  
HETATM    5  C3  UNL     1       0.000   0.000   0.000  1.00  0.00           C  
HETATM    6  N2  UNL     1       0.000   0.000   0.000  1.00  0.00           N  
HETATM    7  C4  UNL     1       0.000   0.000   0.000  1.00  0.00           C  
HETATM    8  C5  UNL     1       0.000   0.000   0.000  1.00  0.00           C  
HETATM    9  C6  UNL     1       0.000   0.000   0.000  1.00  0.00           C  
HETATM   10  O2  UNL     1       0.000   0.000   0.000  1.00  0.00           O  
HETATM   11  N3  UNL     1       0.000   0.000   0.000  1.00  0.00           N  
HETATM   12  C7  UNL     1       0.000   0.000   0.000  1.00  0.00           C  
HETATM   13  O3  UNL     1       0.000   0.000   0.000  1.00  0.00           O  
HETATM   14  N4  UNL     1       0.000   0.000   0.000  1.00  0.00           N  
HETATM   15  C8  UNL     1       0.000   0.000   0.000  1.00  0.00           C  
HETATM   16  C9  UNL     1       0.000   0.000   0.000  1.00  0.00           C  
HETATM   17  H1  UNL     1       0.000   0.000   0.000  1.00  0.00           H  
HETATM   18  H2  UNL     1       0.000   0.000   0.000  1.00  0.00           H  
HETATM   19  H3  UNL     1       0.000   0.000   0.000  1.00  0.00           H  
HETATM   20  H4  UNL     1       0.000   0.000   0.000  1.00  0.00           H  
HETATM   21  H5  UNL     1       0.000   0.000   0.000  1.00  0.00           H  
HETATM   22  H6  UNL     1       0.000   0.000   0.000  1.00  0.00           H  
HETATM   23  H7  UNL     1       0.000   0.000   0.000  1.00  0.00           H  
HETATM   24  H8  UNL     1       0.000   0.000   0.000  1.00  0.00           H  
HETATM   25  H9  UNL     1       0.000   0.000   0.000  1.00  0.00           H  
HETATM   26  H10 UNL     1       0.000   0.000   0.000  1.00  0.00           H  
CONECT    1    2   17   18   19
CONECT    2    3    3    4
CONECT    4    5    8
CONECT    5    6    6   20
CONECT    6    7
CONECT    7    8    8   14
CONECT    8    9
CONECT    9   10   10   11
CONECT   11   12   16
CONECT   12   13   13   14
CONECT   14   15
CONECT   15   21   22   23
CONECT   16   24   25   26
END
