HETATM    1  C1  UNL     1       0.000   0.000   0.000  1.00  0.00           C  
HETATM    2  C2  UNL     1       0.000   0.000   0.000  1.00  0.00           C  
HETATM    3  C3  UNL     1       0.000   0.000   0.000  1.00  0.00           C  
HETATM    4  C4  UNL     1       0.000   0.000   0.000  1.00  0.00           C  
HETATM    5  C5  UNL     1       0.000   0.000   0.000  1.00  0.00           C  
HETATM    6  C6  UNL     1       0.000   0.000   0.000  1.00  0.00           C  
HETATM    7  C7  UNL     1       0.000   0.000   0.000  1.00  0.00           C  
HETATM    8  C8  UNL     1       0.000   0.000   0.000  1.00  0.00           C  
HETATM    9  C9  UNL     1       0.000   0.000   0.000  1.00  0.00           C  
HETATM   10  C10 UNL     1       0.000   0.000   0.000  1.00  0.00           C  
HETATM   11  C11 UNL     1       0.000   0.000   0.000  1.00  0.00           C  
HETATM   12  C12 UNL     1       0.000   0.000   0.000  1.00  0.00           C  
HETATM   13  C13 UNL     1       0.000   0.000   0.000  1.00  0.00           C  
HETATM   14  O1  UNL     1       0.000   0.000   0.000  1.00  0.00           O  
HETATM   15  O2  UNL     1       0.000   0.000   0.000  1.00  0.00           O  
HETATM   16  H1  UNL     1       0.000   0.000   0.000  1.00  0.00           H  
HETATM   17  H2  UNL     1       0.000   0.000   0.000  1.00  0.00           H  
HETATM   18  H3  UNL     1       0.000   0.000   0.000  1.00  0.00           H  
HETATM   19  H4  UNL     1       0.000   0.000   0.000  1.00  0.00           H  
HETATM   20  H5  UNL     1       0.000   0.000   0.000  1.00  0.00           H  
HETATM   21  H6  UNL     1       0.000   0.000   0.000  1.00  0.00           H  
HETATM   22  H7  UNL     1       0.000   0.000   0.000  1.00  0.00           H  
HETATM   23  H8  UNL     1       0.000   0.000   0.000  1.00  0.00           H  
HETATM   24  H9  UNL     1       0.000   0.000   0.000  1.00  0.00           H  
HETATM   25  H10 UNL     1       0.000   0.000   0.000  1.00  0.00           H  
HETATM   26  H11 UNL     1       0.000   0.000   0.000  1.00  0.00           H  
HETATM   27  H12 UNL     1       0.000   0.000   0.000  1.00  0.00           H  
HETATM   28  H13 UNL     1       0.000   0.000   0.000  1.00  0.00           H  
HETATM   29  H14 UNL     1       0.000   0.000   0.000  1.00  0.00           H  
HETATM   30  H15 UNL     1       0.000   0.000   0.000  1.00  0.00           H  
HETATM   31  H16 UNL     1       0.000   0.000   0.000  1.00  0.00           H  
HETATM   32  H17 UNL     1       0.000   0.000   0.000  1.00  0.00           H  
HETATM   33  H18 UNL     1       0.000   0.000   0.000  1.00  0.00           H  
CONECT    1    2   16   17   18
CONECT    2    3    4   19
CONECT    3   20   21   22
CONECT    4    5   23   24
CONECT    5    6   10   10
CONECT    6    7    7   25
CONECT    7    8   26
CONECT    8    9    9   11
CONECT    9   10   27
CONECT   10   28
CONECT   11   12   13   29
CONECT   12   30   31   32
CONECT   13   14   14   15
CONECT   15   33
END
